sl_num,Poymer name,"SMILES (Atoms Ce and Th are placeholders for head and tail information, respectively)",Experiment Tg (K),Calculated Tg (K),Calculated Tg std. dev. (K),Experiment density at 300K (g/cc),Calculated density at 300K (g/cc),Calulated density at 300K std. dev. (g/cc),Calculated glass CTE (10-6/K),Calculated glass CTE std. dev. (10-6/K) ,Calculated rubber CTE (10-6/K),Calculated rubber CTE std. dev. (10-6/K)
314,Polyphenolphthalein 5,[Ce]C1=CC=C(C=C1)C1(OC(=O)C2=CC=CC=C12)C1=CC=C(C=C1)C(=O)NC1=CC=C(C=C1)C1(NC(=O)C2=CC=CC=C12)C1=CC=C(C=C1)NC(=O)[Th],673,842.1,38.1,,1.190,0.005,130.7,8.2,438.4,92.4
315,"Poly[N,N'-(p,p'-carbonyldiphenylene)pyromellitimide] ",[Ce]C1=CC=C(C=C1)N5C(=O)C4=CC2=C(C(N(C2=O)C3=CC=C(C=C3)C([Th])=O)=O)C=C4C5=O,685,783.0,11.8,,1.268,0.007,111.5,5.7,268.2,22.2